# vtk DataFile Version 3.0
vtk output
ASCII
DATASET POLYDATA
POINTS 2121 double
0 0 0
2 0 0
4 0 0
6 0 0
8 0 0
10 0 0
12 0 0
14 0 0
16 0 0
18 0 0
20 0 0
22 0 0
24 0 0
26 0 0
28 0 0
30 0 0
32 0 0
34 0 0
36 0 0
38 0 0
40 0 0
42 0 0
44 0 0
46 0 0
48 0 0
50 0 0
52 0 0
54 0 0
56 0 0
58 0 0
60 0 0
62 0 0
64 0 0
66 0 0
68 0 0
70 0 0
72 0 0
74 0 0
76 0 0
78 0 0
80 0 0
82 0 0
84 0 0
86 0 0
88 0 0
90 0 0
92 0 0
94 0 0
96 0 0
98 0 0
100 0 0
102 0 0
104 0 0
106 0 0
108 0 0
110 0 0
112 0 0
114 0 0
116 0 0
118 0 0
120 0 0
122 0 0
124 0 0
126 0 0
128 0 0
130 0 0
132 0 0
134 0 0
136 0 0
138 0 0
140 0 0
142 0 0
144 0 0
146 0 0
148 0 0
150 0 0
152 0 0
154 0 0
156 0 0
158 0 0
160 0 0
162 0 0
164 0 0
166 0 0
168 0 0
170 0 0
172 0 0
174 0 0
176 0 0
178 0 0
180 0 0
182 0 0
184 0 0
186 0 0
188 0 0
190 0 0
192 0 0
194 0 0
196 0 0
198 0 0
200 0 0
0 2 0
2 2 0
4 2 0
6 2 0
8 2 0
10 2 0
12 2 0
14 2 0
16 2 0
18 2 0
20 2 0
22 2 0
24 2 0
26 2 0
28 2 0
30 2 0
32 2 0
34 2 0
36 2 0
38 2 0
40 2 0
42 2 0
44 2 0
46 2 0
48 2 0
50 2 0
52 2 0
54 2 0
56 2 0
58 2 0
60 2 0
62 2 0
64 2 0
66 2 0
68 2 0
70 2 0
72 2 0
74 2 0
76 2 0
78 2 0
80 2 0
82 2 0
84 2 0
86 2 0
88 2 0
90 2 0
92 2 0
94 2 0
96 2 0
98 2 0
100 2 0
102 2 0
104 2 0
106 2 0
108 2 0
110 2 0
112 2 0
114 2 0
116 2 0
118 2 0
120 2 0
122 2 0
124 2 0
126 2 0
128 2 0
130 2 0
132 2 0
134 2 0
136 2 0
138 2 0
140 2 0
142 2 0
144 2 0
146 2 0
148 2 0
150 2 0
152 2 0
154 2 0
156 2 0
158 2 0
160 2 0
162 2 0
164 2 0
166 2 0
168 2 0
170 2 0
172 2 0
174 2 0
176 2 0
178 2 0
180 2 0
182 2 0
184 2 0
186 2 0
188 2 0
190 2 0
192 2 0
194 2 0
196 2 0
198 2 0
200 2 0
0 4 0
2 4 0
4 4 0
6 4 0
8 4 0
10 4 0
12 4 0
14 4 0
16 4 0
18 4 0
20 4 0
22 4 0
24 4 0
26 4 0
28 4 0
30 4 0
32 4 0
34 4 0
36 4 0
38 4 0
40 4 0
42 4 0
44 4 0
46 4 0
48 4 0
50 4 0
52 4 0
54 4 0
56 4 0
58 4 0
60 4 0
62 4 0
64 4 0
66 4 0
68 4 0
70 4 0
72 4 0
74 4 0
76 4 0
78 4 0
80 4 0
82 4 0
84 4 0
86 4 0
88 4 0
90 4 0
92 4 0
94 4 0
96 4 0
98 4 0
100 4 0
102 4 0
104 4 0
106 4 0
108 4 0
110 4 0
112 4 0
114 4 0
116 4 0
118 4 0
120 4 0
122 4 0
124 4 0
126 4 0
128 4 0
130 4 0
132 4 0
134 4 0
136 4 0
138 4 0
140 4 0
142 4 0
144 4 0
146 4 0
148 4 0
150 4 0
152 4 0
154 4 0
156 4 0
158 4 0
160 4 0
162 4 0
164 4 0
166 4 0
168 4 0
170 4 0
172 4 0
174 4 0
176 4 0
178 4 0
180 4 0
182 4 0
184 4 0
186 4 0
188 4 0
190 4 0
192 4 0
194 4 0
196 4 0
198 4 0
200 4 0
0 6 0
2 6 0
4 6 0
6 6 0
8 6 0
10 6 0
12 6 0
14 6 0
16 6 0
18 6 0
20 6 0
22 6 0
24 6 0
26 6 0
28 6 0
30 6 0
32 6 0
34 6 0
36 6 0
38 6 0
40 6 0
42 6 0
44 6 0
46 6 0
48 6 0
50 6 0
52 6 0
54 6 0
56 6 0
58 6 0
60 6 0
62 6 0
64 6 0
66 6 0
68 6 0
70 6 0
72 6 0
74 6 0
76 6 0
78 6 0
80 6 0
82 6 0
84 6 0
86 6 0
88 6 0
90 6 0
92 6 0
94 6 0
96 6 0
98 6 0
100 6 0
102 6 0
104 6 0
106 6 0
108 6 0
110 6 0
112 6 0
114 6 0
116 6 0
118 6 0
120 6 0
122 6 0
124 6 0
126 6 0
128 6 0
130 6 0
132 6 0
134 6 0
136 6 0
138 6 0
140 6 0
142 6 0
144 6 0
146 6 0
148 6 0
150 6 0
152 6 0
154 6 0
156 6 0
158 6 0
160 6 0
162 6 0
164 6 0
166 6 0
168 6 0
170 6 0
172 6 0
174 6 0
176 6 0
178 6 0
180 6 0
182 6 0
184 6 0
186 6 0
188 6 0
190 6 0
192 6 0
194 6 0
196 6 0
198 6 0
200 6 0
0 8 0
2 8 0
4 8 0
6 8 0
8 8 0
10 8 0
12 8 0
14 8 0
16 8 0
18 8 0
20 8 0
22 8 0
24 8 0
26 8 0
28 8 0
30 8 0
32 8 0
34 8 0
36 8 0
38 8 0
40 8 0
42 8 0
44 8 0
46 8 0
48 8 0
50 8 0
52 8 0
54 8 0
56 8 0
58 8 0
60 8 0
62 8 0
64 8 0
66 8 0
68 8 0
70 8 0
72 8 0
74 8 0
76 8 0
78 8 0
80 8 0
82 8 0
84 8 0
86 8 0
88 8 0
90 8 0
92 8 0
94 8 0
96 8 0
98 8 0
100 8 0
102 8 0
104 8 0
106 8 0
108 8 0
110 8 0
112 8 0
114 8 0
116 8 0
118 8 0
120 8 0
122 8 0
124 8 0
126 8 0
128 8 0
130 8 0
132 8 0
134 8 0
136 8 0
138 8 0
140 8 0
142 8 0
144 8 0
146 8 0
148 8 0
150 8 0
152 8 0
154 8 0
156 8 0
158 8 0
160 8 0
162 8 0
164 8 0
166 8 0
168 8 0
170 8 0
172 8 0
174 8 0
176 8 0
178 8 0
180 8 0
182 8 0
184 8 0
186 8 0
188 8 0
190 8 0
192 8 0
194 8 0
196 8 0
198 8 0
200 8 0
0 10 0
2 10 0
4 10 0
6 10 0
8 10 0
10 10 0
12 10 0
14 10 0
16 10 0
18 10 0
20 10 0
22 10 0
24 10 0
26 10 0
28 10 0
30 10 0
32 10 0
34 10 0
36 10 0
38 10 0
40 10 0
42 10 0
44 10 0
46 10 0
48 10 0
50 10 0
52 10 0
54 10 0
56 10 0
58 10 0
60 10 0
62 10 0
64 10 0
66 10 0
68 10 0
70 10 0
72 10 0
74 10 0
76 10 0
78 10 0
80 10 0
82 10 0
84 10 0
86 10 0
88 10 0
90 10 0
92 10 0
94 10 0
96 10 0
98 10 0
100 10 0
102 10 0
104 10 0
106 10 0
108 10 0
110 10 0
112 10 0
114 10 0
116 10 0
118 10 0
120 10 0
122 10 0
124 10 0
126 10 0
128 10 0
130 10 0
132 10 0
134 10 0
136 10 0
138 10 0
140 10 0
142 10 0
144 10 0
146 10 0
148 10 0
150 10 0
152 10 0
154 10 0
156 10 0
158 10 0
160 10 0
162 10 0
164 10 0
166 10 0
168 10 0
170 10 0
172 10 0
174 10 0
176 10 0
178 10 0
180 10 0
182 10 0
184 10 0
186 10 0
188 10 0
190 10 0
192 10 0
194 10 0
196 10 0
198 10 0
200 10 0
0 12 0
2 12 0
4 12 0
6 12 0
8 12 0
10 12 0
12 12 0
14 12 0
16 12 0
18 12 0
20 12 0
22 12 0
24 12 0
26 12 0
28 12 0
30 12 0
32 12 0
34 12 0
36 12 0
38 12 0
40 12 0
42 12 0
44 12 0
46 12 0
48 12 0
50 12 0
52 12 0
54 12 0
56 12 0
58 12 0
60 12 0
62 12 0
64 12 0
66 12 0
68 12 0
70 12 0
72 12 0
74 12 0
76 12 0
78 12 0
80 12 0
82 12 0
84 12 0
86 12 0
88 12 0
90 12 0
92 12 0
94 12 0
96 12 0
98 12 0
100 12 0
102 12 0
104 12 0
106 12 0
108 12 0
110 12 0
112 12 0
114 12 0
116 12 0
118 12 0
120 12 0
122 12 0
124 12 0
126 12 0
128 12 0
130 12 0
132 12 0
134 12 0
136 12 0
138 12 0
140 12 0
142 12 0
144 12 0
146 12 0
148 12 0
150 12 0
152 12 0
154 12 0
156 12 0
158 12 0
160 12 0
162 12 0
164 12 0
166 12 0
168 12 0
170 12 0
172 12 0
174 12 0
176 12 0
178 12 0
180 12 0
182 12 0
184 12 0
186 12 0
188 12 0
190 12 0
192 12 0
194 12 0
196 12 0
198 12 0
200 12 0
0 14 0
2 14 0
4 14 0
6 14 0
8 14 0
10 14 0
12 14 0
14 14 0
16 14 0
18 14 0
20 14 0
22 14 0
24 14 0
26 14 0
28 14 0
30 14 0
32 14 0
34 14 0
36 14 0
38 14 0
40 14 0
42 14 0
44 14 0
46 14 0
48 14 0
50 14 0
52 14 0
54 14 0
56 14 0
58 14 0
60 14 0
62 14 0
64 14 0
66 14 0
68 14 0
70 14 0
72 14 0
74 14 0
76 14 0
78 14 0
80 14 0
82 14 0
84 14 0
86 14 0
88 14 0
90 14 0
92 14 0
94 14 0
96 14 0
98 14 0
100 14 0
102 14 0
104 14 0
106 14 0
108 14 0
110 14 0
112 14 0
114 14 0
116 14 0
118 14 0
120 14 0
122 14 0
124 14 0
126 14 0
128 14 0
130 14 0
132 14 0
134 14 0
136 14 0
138 14 0
140 14 0
142 14 0
144 14 0
146 14 0
148 14 0
150 14 0
152 14 0
154 14 0
156 14 0
158 14 0
160 14 0
162 14 0
164 14 0
166 14 0
168 14 0
170 14 0
172 14 0
174 14 0
176 14 0
178 14 0
180 14 0
182 14 0
184 14 0
186 14 0
188 14 0
190 14 0
192 14 0
194 14 0
196 14 0
198 14 0
200 14 0
0 16 0
2 16 0
4 16 0
6 16 0
8 16 0
10 16 0
12 16 0
14 16 0
16 16 0
18 16 0
20 16 0
22 16 0
24 16 0
26 16 0
28 16 0
30 16 0
32 16 0
34 16 0
36 16 0
38 16 0
40 16 0
42 16 0
44 16 0
46 16 0
48 16 0
50 16 0
52 16 0
54 16 0
56 16 0
58 16 0
60 16 0
62 16 0
64 16 0
66 16 0
68 16 0
70 16 0
72 16 0
74 16 0
76 16 0
78 16 0
80 16 0
82 16 0
84 16 0
86 16 0
88 16 0
90 16 0
92 16 0
94 16 0
96 16 0
98 16 0
100 16 0
102 16 0
104 16 0
106 16 0
108 16 0
110 16 0
112 16 0
114 16 0
116 16 0
118 16 0
120 16 0
122 16 0
124 16 0
126 16 0
128 16 0
130 16 0
132 16 0
134 16 0
136 16 0
138 16 0
140 16 0
142 16 0
144 16 0
146 16 0
148 16 0
150 16 0
152 16 0
154 16 0
156 16 0
158 16 0
160 16 0
162 16 0
164 16 0
166 16 0
168 16 0
170 16 0
172 16 0
174 16 0
176 16 0
178 16 0
180 16 0
182 16 0
184 16 0
186 16 0
188 16 0
190 16 0
192 16 0
194 16 0
196 16 0
198 16 0
200 16 0
0 18 0
2 18 0
4 18 0
6 18 0
8 18 0
10 18 0
12 18 0
14 18 0
16 18 0
18 18 0
20 18 0
22 18 0
24 18 0
26 18 0
28 18 0
30 18 0
32 18 0
34 18 0
36 18 0
38 18 0
40 18 0
42 18 0
44 18 0
46 18 0
48 18 0
50 18 0
52 18 0
54 18 0
56 18 0
58 18 0
60 18 0
62 18 0
64 18 0
66 18 0
68 18 0
70 18 0
72 18 0
74 18 0
76 18 0
78 18 0
80 18 0
82 18 0
84 18 0
86 18 0
88 18 0
90 18 0
92 18 0
94 18 0
96 18 0
98 18 0
100 18 0
102 18 0
104 18 0
106 18 0
108 18 0
110 18 0
112 18 0
114 18 0
116 18 0
118 18 0
120 18 0
122 18 0
124 18 0
126 18 0
128 18 0
130 18 0
132 18 0
134 18 0
136 18 0
138 18 0
140 18 0
142 18 0
144 18 0
146 18 0
148 18 0
150 18 0
152 18 0
154 18 0
156 18 0
158 18 0
160 18 0
162 18 0
164 18 0
166 18 0
168 18 0
170 18 0
172 18 0
174 18 0
176 18 0
178 18 0
180 18 0
182 18 0
184 18 0
186 18 0
188 18 0
190 18 0
192 18 0
194 18 0
196 18 0
198 18 0
200 18 0
0 20 0
2 20 0
4 20 0
6 20 0
8 20 0
10 20 0
12 20 0
14 20 0
16 20 0
18 20 0
20 20 0
22 20 0
24 20 0
26 20 0
28 20 0
30 20 0
32 20 0
34 20 0
36 20 0
38 20 0
40 20 0
42 20 0
44 20 0
46 20 0
48 20 0
50 20 0
52 20 0
54 20 0
56 20 0
58 20 0
60 20 0
62 20 0
64 20 0
66 20 0
68 20 0
70 20 0
72 20 0
74 20 0
76 20 0
78 20 0
80 20 0
82 20 0
84 20 0
86 20 0
88 20 0
90 20 0
92 20 0
94 20 0
96 20 0
98 20 0
100 20 0
102 20 0
104 20 0
106 20 0
108 20 0
110 20 0
112 20 0
114 20 0
116 20 0
118 20 0
120 20 0
122 20 0
124 20 0
126 20 0
128 20 0
130 20 0
132 20 0
134 20 0
136 20 0
138 20 0
140 20 0
142 20 0
144 20 0
146 20 0
148 20 0
150 20 0
152 20 0
154 20 0
156 20 0
158 20 0
160 20 0
162 20 0
164 20 0
166 20 0
168 20 0
170 20 0
172 20 0
174 20 0
176 20 0
178 20 0
180 20 0
182 20 0
184 20 0
186 20 0
188 20 0
190 20 0
192 20 0
194 20 0
196 20 0
198 20 0
200 20 0
0 22 0
2 22 0
4 22 0
6 22 0
8 22 0
10 22 0
12 22 0
14 22 0
16 22 0
18 22 0
20 22 0
22 22 0
24 22 0
26 22 0
28 22 0
30 22 0
32 22 0
34 22 0
36 22 0
38 22 0
40 22 0
42 22 0
44 22 0
46 22 0
48 22 0
50 22 0
52 22 0
54 22 0
56 22 0
58 22 0
60 22 0
62 22 0
64 22 0
66 22 0
68 22 0
70 22 0
72 22 0
74 22 0
76 22 0
78 22 0
80 22 0
82 22 0
84 22 0
86 22 0
88 22 0
90 22 0
92 22 0
94 22 0
96 22 0
98 22 0
100 22 0
102 22 0
104 22 0
106 22 0
108 22 0
110 22 0
112 22 0
114 22 0
116 22 0
118 22 0
120 22 0
122 22 0
124 22 0
126 22 0
128 22 0
130 22 0
132 22 0
134 22 0
136 22 0
138 22 0
140 22 0
142 22 0
144 22 0
146 22 0
148 22 0
150 22 0
152 22 0
154 22 0
156 22 0
158 22 0
160 22 0
162 22 0
164 22 0
166 22 0
168 22 0
170 22 0
172 22 0
174 22 0
176 22 0
178 22 0
180 22 0
182 22 0
184 22 0
186 22 0
188 22 0
190 22 0
192 22 0
194 22 0
196 22 0
198 22 0
200 22 0
0 24 0
2 24 0
4 24 0
6 24 0
8 24 0
10 24 0
12 24 0
14 24 0
16 24 0
18 24 0
20 24 0
22 24 0
24 24 0
26 24 0
28 24 0
30 24 0
32 24 0
34 24 0
36 24 0
38 24 0
40 24 0
42 24 0
44 24 0
46 24 0
48 24 0
50 24 0
52 24 0
54 24 0
56 24 0
58 24 0
60 24 0
62 24 0
64 24 0
66 24 0
68 24 0
70 24 0
72 24 0
74 24 0
76 24 0
78 24 0
80 24 0
82 24 0
84 24 0
86 24 0
88 24 0
90 24 0
92 24 0
94 24 0
96 24 0
98 24 0
100 24 0
102 24 0
104 24 0
106 24 0
108 24 0
110 24 0
112 24 0
114 24 0
116 24 0
118 24 0
120 24 0
122 24 0
124 24 0
126 24 0
128 24 0
130 24 0
132 24 0
134 24 0
136 24 0
138 24 0
140 24 0
142 24 0
144 24 0
146 24 0
148 24 0
150 24 0
152 24 0
154 24 0
156 24 0
158 24 0
160 24 0
162 24 0
164 24 0
166 24 0
168 24 0
170 24 0
172 24 0
174 24 0
176 24 0
178 24 0
180 24 0
182 24 0
184 24 0
186 24 0
188 24 0
190 24 0
192 24 0
194 24 0
196 24 0
198 24 0
200 24 0
0 26 0
2 26 0
4 26 0
6 26 0
8 26 0
10 26 0
12 26 0
14 26 0
16 26 0
18 26 0
20 26 0
22 26 0
24 26 0
26 26 0
28 26 0
30 26 0
32 26 0
34 26 0
36 26 0
38 26 0
40 26 0
42 26 0
44 26 0
46 26 0
48 26 0
50 26 0
52 26 0
54 26 0
56 26 0
58 26 0
60 26 0
62 26 0
64 26 0
66 26 0
68 26 0
70 26 0
72 26 0
74 26 0
76 26 0
78 26 0
80 26 0
82 26 0
84 26 0
86 26 0
88 26 0
90 26 0
92 26 0
94 26 0
96 26 0
98 26 0
100 26 0
102 26 0
104 26 0
106 26 0
108 26 0
110 26 0
112 26 0
114 26 0
116 26 0
118 26 0
120 26 0
122 26 0
124 26 0
126 26 0
128 26 0
130 26 0
132 26 0
134 26 0
136 26 0
138 26 0
140 26 0
142 26 0
144 26 0
146 26 0
148 26 0
150 26 0
152 26 0
154 26 0
156 26 0
158 26 0
160 26 0
162 26 0
164 26 0
166 26 0
168 26 0
170 26 0
172 26 0
174 26 0
176 26 0
178 26 0
180 26 0
182 26 0
184 26 0
186 26 0
188 26 0
190 26 0
192 26 0
194 26 0
196 26 0
198 26 0
200 26 0
0 28 0
2 28 0
4 28 0
6 28 0
8 28 0
10 28 0
12 28 0
14 28 0
16 28 0
18 28 0
20 28 0
22 28 0
24 28 0
26 28 0
28 28 0
30 28 0
32 28 0
34 28 0
36 28 0
38 28 0
40 28 0
42 28 0
44 28 0
46 28 0
48 28 0
50 28 0
52 28 0
54 28 0
56 28 0
58 28 0
60 28 0
62 28 0
64 28 0
66 28 0
68 28 0
70 28 0
72 28 0
74 28 0
76 28 0
78 28 0
80 28 0
82 28 0
84 28 0
86 28 0
88 28 0
90 28 0
92 28 0
94 28 0
96 28 0
98 28 0
100 28 0
102 28 0
104 28 0
106 28 0
108 28 0
110 28 0
112 28 0
114 28 0
116 28 0
118 28 0
120 28 0
122 28 0
124 28 0
126 28 0
128 28 0
130 28 0
132 28 0
134 28 0
136 28 0
138 28 0
140 28 0
142 28 0
144 28 0
146 28 0
148 28 0
150 28 0
152 28 0
154 28 0
156 28 0
158 28 0
160 28 0
162 28 0
164 28 0
166 28 0
168 28 0
170 28 0
172 28 0
174 28 0
176 28 0
178 28 0
180 28 0
182 28 0
184 28 0
186 28 0
188 28 0
190 28 0
192 28 0
194 28 0
196 28 0
198 28 0
200 28 0
0 30 0
2 30 0
4 30 0
6 30 0
8 30 0
10 30 0
12 30 0
14 30 0
16 30 0
18 30 0
20 30 0
22 30 0
24 30 0
26 30 0
28 30 0
30 30 0
32 30 0
34 30 0
36 30 0
38 30 0
40 30 0
42 30 0
44 30 0
46 30 0
48 30 0
50 30 0
52 30 0
54 30 0
56 30 0
58 30 0
60 30 0
62 30 0
64 30 0
66 30 0
68 30 0
70 30 0
72 30 0
74 30 0
76 30 0
78 30 0
80 30 0
82 30 0
84 30 0
86 30 0
88 30 0
90 30 0
92 30 0
94 30 0
96 30 0
98 30 0
100 30 0
102 30 0
104 30 0
106 30 0
108 30 0
110 30 0
112 30 0
114 30 0
116 30 0
118 30 0
120 30 0
122 30 0
124 30 0
126 30 0
128 30 0
130 30 0
132 30 0
134 30 0
136 30 0
138 30 0
140 30 0
142 30 0
144 30 0
146 30 0
148 30 0
150 30 0
152 30 0
154 30 0
156 30 0
158 30 0
160 30 0
162 30 0
164 30 0
166 30 0
168 30 0
170 30 0
172 30 0
174 30 0
176 30 0
178 30 0
180 30 0
182 30 0
184 30 0
186 30 0
188 30 0
190 30 0
192 30 0
194 30 0
196 30 0
198 30 0
200 30 0
0 32 0
2 32 0
4 32 0
6 32 0
8 32 0
10 32 0
12 32 0
14 32 0
16 32 0
18 32 0
20 32 0
22 32 0
24 32 0
26 32 0
28 32 0
30 32 0
32 32 0
34 32 0
36 32 0
38 32 0
40 32 0
42 32 0
44 32 0
46 32 0
48 32 0
50 32 0
52 32 0
54 32 0
56 32 0
58 32 0
60 32 0
62 32 0
64 32 0
66 32 0
68 32 0
70 32 0
72 32 0
74 32 0
76 32 0
78 32 0
80 32 0
82 32 0
84 32 0
86 32 0
88 32 0
90 32 0
92 32 0
94 32 0
96 32 0
98 32 0
100 32 0
102 32 0
104 32 0
106 32 0
108 32 0
110 32 0
112 32 0
114 32 0
116 32 0
118 32 0
120 32 0
122 32 0
124 32 0
126 32 0
128 32 0
130 32 0
132 32 0
134 32 0
136 32 0
138 32 0
140 32 0
142 32 0
144 32 0
146 32 0
148 32 0
150 32 0
152 32 0
154 32 0
156 32 0
158 32 0
160 32 0
162 32 0
164 32 0
166 32 0
168 32 0
170 32 0
172 32 0
174 32 0
176 32 0
178 32 0
180 32 0
182 32 0
184 32 0
186 32 0
188 32 0
190 32 0
192 32 0
194 32 0
196 32 0
198 32 0
200 32 0
0 34 0
2 34 0
4 34 0
6 34 0
8 34 0
10 34 0
12 34 0
14 34 0
16 34 0
18 34 0
20 34 0
22 34 0
24 34 0
26 34 0
28 34 0
30 34 0
32 34 0
34 34 0
36 34 0
38 34 0
40 34 0
42 34 0
44 34 0
46 34 0
48 34 0
50 34 0
52 34 0
54 34 0
56 34 0
58 34 0
60 34 0
62 34 0
64 34 0
66 34 0
68 34 0
70 34 0
72 34 0
74 34 0
76 34 0
78 34 0
80 34 0
82 34 0
84 34 0
86 34 0
88 34 0
90 34 0
92 34 0
94 34 0
96 34 0
98 34 0
100 34 0
102 34 0
104 34 0
106 34 0
108 34 0
110 34 0
112 34 0
114 34 0
116 34 0
118 34 0
120 34 0
122 34 0
124 34 0
126 34 0
128 34 0
130 34 0
132 34 0
134 34 0
136 34 0
138 34 0
140 34 0
142 34 0
144 34 0
146 34 0
148 34 0
150 34 0
152 34 0
154 34 0
156 34 0
158 34 0
160 34 0
162 34 0
164 34 0
166 34 0
168 34 0
170 34 0
172 34 0
174 34 0
176 34 0
178 34 0
180 34 0
182 34 0
184 34 0
186 34 0
188 34 0
190 34 0
192 34 0
194 34 0
196 34 0
198 34 0
200 34 0
0 36 0
2 36 0
4 36 0
6 36 0
8 36 0
10 36 0
12 36 0
14 36 0
16 36 0
18 36 0
20 36 0
22 36 0
24 36 0
26 36 0
28 36 0
30 36 0
32 36 0
34 36 0
36 36 0
38 36 0
40 36 0
42 36 0
44 36 0
46 36 0
48 36 0
50 36 0
52 36 0
54 36 0
56 36 0
58 36 0
60 36 0
62 36 0
64 36 0
66 36 0
68 36 0
70 36 0
72 36 0
74 36 0
76 36 0
78 36 0
80 36 0
82 36 0
84 36 0
86 36 0
88 36 0
90 36 0
92 36 0
94 36 0
96 36 0
98 36 0
100 36 0
102 36 0
104 36 0
106 36 0
108 36 0
110 36 0
112 36 0
114 36 0
116 36 0
118 36 0
120 36 0
122 36 0
124 36 0
126 36 0
128 36 0
130 36 0
132 36 0
134 36 0
136 36 0
138 36 0
140 36 0
142 36 0
144 36 0
146 36 0
148 36 0
150 36 0
152 36 0
154 36 0
156 36 0
158 36 0
160 36 0
162 36 0
164 36 0
166 36 0
168 36 0
170 36 0
172 36 0
174 36 0
176 36 0
178 36 0
180 36 0
182 36 0
184 36 0
186 36 0
188 36 0
190 36 0
192 36 0
194 36 0
196 36 0
198 36 0
200 36 0
0 38 0
2 38 0
4 38 0
6 38 0
8 38 0
10 38 0
12 38 0
14 38 0
16 38 0
18 38 0
20 38 0
22 38 0
24 38 0
26 38 0
28 38 0
30 38 0
32 38 0
34 38 0
36 38 0
38 38 0
40 38 0
42 38 0
44 38 0
46 38 0
48 38 0
50 38 0
52 38 0
54 38 0
56 38 0
58 38 0
60 38 0
62 38 0
64 38 0
66 38 0
68 38 0
70 38 0
72 38 0
74 38 0
76 38 0
78 38 0
80 38 0
82 38 0
84 38 0
86 38 0
88 38 0
90 38 0
92 38 0
94 38 0
96 38 0
98 38 0
100 38 0
102 38 0
104 38 0
106 38 0
108 38 0
110 38 0
112 38 0
114 38 0
116 38 0
118 38 0
120 38 0
122 38 0
124 38 0
126 38 0
128 38 0
130 38 0
132 38 0
134 38 0
136 38 0
138 38 0
140 38 0
142 38 0
144 38 0
146 38 0
148 38 0
150 38 0
152 38 0
154 38 0
156 38 0
158 38 0
160 38 0
162 38 0
164 38 0
166 38 0
168 38 0
170 38 0
172 38 0
174 38 0
176 38 0
178 38 0
180 38 0
182 38 0
184 38 0
186 38 0
188 38 0
190 38 0
192 38 0
194 38 0
196 38 0
198 38 0
200 38 0
0 40 0
2 40 0
4 40 0
6 40 0
8 40 0
10 40 0
12 40 0
14 40 0
16 40 0
18 40 0
20 40 0
22 40 0
24 40 0
26 40 0
28 40 0
30 40 0
32 40 0
34 40 0
36 40 0
38 40 0
40 40 0
42 40 0
44 40 0
46 40 0
48 40 0
50 40 0
52 40 0
54 40 0
56 40 0
58 40 0
60 40 0
62 40 0
64 40 0
66 40 0
68 40 0
70 40 0
72 40 0
74 40 0
76 40 0
78 40 0
80 40 0
82 40 0
84 40 0
86 40 0
88 40 0
90 40 0
92 40 0
94 40 0
96 40 0
98 40 0
100 40 0
102 40 0
104 40 0
106 40 0
108 40 0
110 40 0
112 40 0
114 40 0
116 40 0
118 40 0
120 40 0
122 40 0
124 40 0
126 40 0
128 40 0
130 40 0
132 40 0
134 40 0
136 40 0
138 40 0
140 40 0
142 40 0
144 40 0
146 40 0
148 40 0
150 40 0
152 40 0
154 40 0
156 40 0
158 40 0
160 40 0
162 40 0
164 40 0
166 40 0
168 40 0
170 40 0
172 40 0
174 40 0
176 40 0
178 40 0
180 40 0
182 40 0
184 40 0
186 40 0
188 40 0
190 40 0
192 40 0
194 40 0
196 40 0
198 40 0
200 40 0
POINT_DATA 2121
VECTORS Displacements double
0 0 0
-0.0105184 -0.00708823 0.0136962
-0.059793 -0.0132005 0.0359891
-0.155374 -0.01793 0.059633
-0.298315 -0.021504 0.083232
-0.48794 -0.0241735 0.106264
-0.722838 -0.0260912 0.128478
-1.00123 -0.0273733 0.149738
-1.32111 -0.0281098 0.169964
-1.68037 -0.028374 0.189111
-2.07682 -0.0282266 0.207152
-2.50823 -0.0277195 0.224073
-2.97236 -0.0268971 0.239867
-3.46695 -0.0257983 0.254531
-3.98974 -0.0244573 0.268066
-4.53846 -0.0229041 0.280473
-5.11088 -0.0211656 0.291757
-5.70475 -0.0192654 0.30192
-6.31782 -0.0172249 0.310966
-6.94787 -0.0150631 0.318898
-7.59267 -0.0127972 0.32572
-8.25001 -0.0104427 0.331435
-8.91768 -0.00801386 0.336045
-9.59346 -0.00552353 0.339553
-10.2752 -0.00298372 0.341961
-10.9606 -0.000405603 0.343269
-11.6475 0.00220024 0.34348
-12.3338 0.00482371 0.342594
-13.0172 0.00745498 0.340611
-13.6955 0.0100844 0.337532
-14.3666 0.0127022 0.333357
-15.0282 0.0152987 0.328084
-15.6782 0.0178637 0.321713
-16.3143 0.0203867 0.314242
-16.9344 0.0228568 0.305671
-17.5362 0.0252622 0.295997
-18.1176 0.0275905 0.285218
-18.6764 0.0298287 0.273334
-19.2102 0.0319629 0.260341
-19.717 0.0339785 0.246238
-20.1945 0.0358605 0.231026
-20.6404 0.037594 0.214706
-21.0525 0.0391644 0.197283
-21.4288 0.0405582 0.178767
-21.7669 0.0417646 0.159176
-22.0648 0.0427762 0.138537
-22.3204 0.0435904 0.116895
-22.5317 0.0442106 0.0943138
-22.6971 0.0446466 0.0708857
-22.8148 0.0449135 0.0467334
-22.8836 0.0450294 0.022014
-22.9026 0.045012 -0.00308255
-22.8712 0.0448741 -0.0283403
-22.7893 0.0446205 -0.0535289
-22.6573 0.0442467 -0.0784179
-22.476 0.0437403 -0.102791
-22.2466 0.0430841 -0.126459
-21.9707 0.0422602 -0.149264
-21.6502 0.0412539 -0.171083
-21.2871 0.040056 -0.191825
-20.8836 0.0386636 -0.211425
-20.4422 0.0370796 -0.229839
-19.9651 0.0353121 -0.247038
-19.4548 0.0333726 -0.263004
-18.9139 0.0312753 -0.277729
-18.3448 0.0290355 -0.291206
-17.7499 0.0266691 -0.303434
-17.1319 0.0241922 -0.314412
-16.4931 0.0216205 -0.324141
-15.8361 0.018969 -0.332624
-15.1634 0.0162525 -0.33986
-14.4775 0.013485 -0.345852
-13.7808 0.01068 -0.350601
-13.0759 0.00785071 -0.354108
-12.3652 0.00501008 -0.356374
-11.6513 0.00217097 -0.357397
-10.9365 -0.000653671 -0.357179
-10.2234 -0.00345062 -0.355719
-9.51443 -0.00620618 -0.353014
-8.81214 -0.00890598 -0.349064
-8.119 -0.0115347 -0.343867
-7.4375 -0.0140761 -0.33742
-6.77015 -0.0165122 -0.32972
-6.11946 -0.0188237 -0.320763
-5.48794 -0.0209891 -0.310547
-4.87811 -0.0229848 -0.299067
-4.29251 -0.0247844 -0.286321
-3.73367 -0.0263585 -0.272303
-3.20414 -0.0276739 -0.257013
-2.70646 -0.0286933 -0.24045
-2.24318 -0.0293742 -0.222616
-1.81684 -0.0296678 -0.203519
-1.42993 -0.0295176 -0.183174
-1.08495 -0.0288571 -0.161609
-0.784272 -0.0276063 -0.138871
-0.530179 -0.0256665 -0.115044
-0.324714 -0.0229103 -0.0902721
-0.169526 -0.0191697 -0.0648218
-0.0654866 -0.0141676 -0.0392474
-0.0116256 -0.00765178 -0.015038
0 0 0
0 0 0
-0.0197154 -0.00281234 0.0196519
-0.0801088 -0.00752352 0.0410783
-0.184767 -0.0117876 0.0636695
-0.334836 -0.0152733 0.0863624
-0.529921 -0.0180212 0.108625
-0.768857 -0.0201078 0.130179
-1.05006 -0.0216119 0.150868
-1.37169 -0.0226035 0.170598
-1.73177 -0.0231438 0.189311
-2.12823 -0.0232865 0.206973
-2.55894 -0.0230787 0.22356
-3.02174 -0.0225619 0.23906
-3.51445 -0.0217731 0.253467
-4.03488 -0.0207451 0.266776
-4.58082 -0.019507 0.278985
-5.15009 -0.018085 0.290096
-5.74048 -0.0165025 0.300108
-6.34979 -0.0147804 0.309024
-6.97584 -0.0129377 0.316844
-7.61644 -0.0109913 0.32357
-8.26939 -0.0089567 0.329203
-8.93252 -0.00684795 0.333746
-9.60365 -0.00467793 0.337199
-10.2806 -0.00245859 0.339562
-10.9612 -0.000201072 0.340838
-11.6432 0.00208409 0.341026
-12.3245 0.00438681 0.340127
-13.003 0.0066973 0.338142
-13.6764 0.00900589 0.335069
-14.3426 0.0113029 0.33091
-14.9993 0.0135786 0.325663
-15.6445 0.0158229 0.319329
-16.2759 0.0180252 0.311906
-16.8914 0.0201746 0.303393
-17.4887 0.0222594 0.29379
-18.0658 0.0242673 0.283095
-18.6204 0.0261851 0.271308
-19.1503 0.0279991 0.258426
-19.6534 0.0296947 0.244449
-20.1274 0.0312572 0.229378
-20.5702 0.0326719 0.213213
-20.9795 0.0339248 0.19596
-21.3533 0.0350035 0.177624
-21.6893 0.0358989 0.158221
-21.9855 0.0366064 0.137774
-22.2397 0.0371279 0.11632
-22.4501 0.0374737 0.0939174
-22.6148 0.0376626 0.0706495
-22.7322 0.0377216 0.0466343
-22.801 0.0376818 0.0220276
-22.8201 0.0375732 -0.00297702
-22.7889 0.0374176 -0.0281549
-22.7075 0.0372229 -0.0532637
-22.5761 0.0369816 -0.0780612
-22.3956 0.0366721 -0.102323
-22.1673 0.036265 -0.125855
-21.8928 0.0357294 -0.148501
-21.5739 0.0350388 -0.170145
-21.2129 0.0341748 -0.190701
-20.8119 0.0331276 -0.210112
-20.3732 0.0318958 -0.228341
-19.8993 0.0304846 -0.245363
-19.3926 0.0289038 -0.261166
-18.8555 0.0271664 -0.275741
-18.2905 0.0252873 -0.289083
-17.7 0.023282 -0.301193
-17.0865 0.0211664 -0.312068
-16.4525 0.0189561 -0.321711
-15.8005 0.0166663 -0.33012
-15.1329 0.0143113 -0.337299
-14.4521 0.0119054 -0.343247
-13.7607 0.0094621 -0.347965
-13.0611 0.00699447 -0.351454
-12.3557 0.00451547 -0.353715
-11.647 0.00203794 -0.354746
-10.9375 -0.000425196 -0.354549
-10.2297 -0.00286075 -0.353123
-9.52587 -0.00525506 -0.350467
-8.82862 -0.00759382 -0.346581
-8.14037 -0.00986181 -0.341462
-7.46359 -0.0120427 -0.335111
-6.80075 -0.0141189 -0.327526
-6.15431 -0.016071 -0.318704
-5.52676 -0.017878 -0.308646
-4.92056 -0.0195164 -0.297348
-4.33819 -0.0209603 -0.284811
-3.78214 -0.0221809 -0.271035
-3.25488 -0.0231461 -0.25602
-2.75888 -0.0238199 -0.239772
-2.29661 -0.0241619 -0.222297
-1.87051 -0.0241267 -0.203609
-1.48297 -0.0236626 -0.183732
-1.13635 -0.0227108 -0.162703
-0.832888 -0.0212041 -0.140583
-0.57468 -0.0190655 -0.117472
-0.363553 -0.0162078 -0.0935384
-0.200887 -0.0125449 -0.0690772
-0.0872366 -0.00802762 -0.044658
-0.0215091 -0.00300495 -0.0214202
0 0 0
0 0 0
-0.023394 -0.00117555 0.0230201
-0.0914534 -0.00416499 0.0450646
-0.203763 -0.00750299 0.067261
-0.360421 -0.010555 0.0893491
-0.560866 -0.0131281 0.111002
-0.803982 -0.0151916 0.13199
-1.08828 -0.0167661 0.152168
-1.41205 -0.0178892 0.171441
-1.7734 -0.0186028 0.189747
-2.17037 -0.0189481 0.207046
-2.6009 -0.0189644 0.223313
-3.06292 -0.0186879 0.23853
-3.55431 -0.0181517 0.252687
-4.07295 -0.0173861 0.265775
-4.6167 -0.0164183 0.277791
-5.1834 -0.0152731 0.288733
-5.77091 -0.0139727 0.298598
-6.37707 -0.0125373 0.307385
-6.99973 -0.0109851 0.315095
-7.63673 -0.00933235 0.321726
-8.28592 -0.0075941 0.32728
-8.94514 -0.00578394 0.331756
-9.61223 -0.00391436 0.335154
-10.285 -0.00199694 0.337475
-10.9614 -4.24916e-05 0.338718
-11.6392 0.00193876 0.338884
-12.3162 0.00393702 0.337973
-12.9904 0.00594277 0.335984
-13.6594 0.00794662 0.332918
-14.3213 0.00993918 0.328775
-14.9738 0.0119109 0.323555
-15.6148 0.0138519 0.317257
-16.2421 0.015752 0.309881
-16.8536 0.0176003 0.301426
-17.4471 0.0193854 0.291893
-18.0205 0.0210951 0.281281
-18.5715 0.0227163 0.269589
-19.0981 0.0242352 0.256818
-19.5981 0.0256373 0.242966
-20.0693 0.0269076 0.228035
-20.5095 0.028031 0.212025
-20.9166 0.0289929 0.19494
-21.2885 0.0297806 0.176784
-21.6231 0.0303848 0.157567
-21.9181 0.0308015 0.137307
-22.1716 0.0310351 0.116032
-22.3816 0.0311011 0.0937901
-22.5462 0.0310281 0.0706537
-22.6637 0.0308574 0.0467321
-22.7327 0.0306388 0.0221782
-22.7521 0.0304211 -0.00280895
-22.7213 0.0302408 -0.0279899
-22.6402 0.0301115 -0.053102
-22.5091 0.0300198 -0.0778825
-22.329 0.0299298 -0.102092
-22.1013 0.0297929 -0.125532
-21.8275 0.0295598 -0.148048
-21.5098 0.0291895 -0.169533
-21.1501 0.0286538 -0.189913
-20.7509 0.0279377 -0.20914
-20.3144 0.0270374 -0.227186
-19.843 0.0259573 -0.244033
-19.339 0.0247074 -0.259672
-18.8051 0.0233012 -0.274098
-18.2435 0.0217539 -0.287307
-17.6567 0.0200816 -0.299299
-17.0471 0.0183002 -0.310072
-16.4172 0.0164254 -0.319628
-15.7694 0.0144724 -0.327966
-15.1061 0.0124554 -0.335087
-14.4298 0.0103884 -0.340991
-13.743 0.00828474 -0.345679
-13.0479 0.00615721 -0.349151
-12.3472 0.00401846 -0.351406
-11.6431 0.001881 -0.352445
-10.9382 -0.000242585 -0.352269
-10.2349 -0.00233947 -0.350877
-9.53551 -0.0043964 -0.348268
-8.84259 -0.00639947 -0.344444
-8.15854 -0.00833393 -0.339403
-7.48579 -0.010184 -0.333147
-6.82677 -0.0119326 -0.325674
-6.18391 -0.013561 -0.316985
-5.55964 -0.015049 -0.30708
-4.95639 -0.0163741 -0.295961
-4.3766 -0.0175116 -0.283629
-3.82268 -0.0184343 -0.270087
-3.29706 -0.019112 -0.25534
-2.80212 -0.0195118 -0.239396
-2.34026 -0.0195971 -0.222265
-1.91384 -0.0193283 -0.203967
-1.52515 -0.0186625 -0.18453
-1.17645 -0.0175542 -0.163995
-0.86986 -0.0159571 -0.14243
-0.607353 -0.0138294 -0.119934
-0.390643 -0.0111468 -0.0966644
-0.221052 -0.00793958 -0.0728662
-0.0993032 -0.00441219 -0.0488886
-0.0254226 -0.00124312 -0.0250073
0 0 0
0 0 0
-0.0251086 -0.000606523 0.0247193
-0.0977957 -0.00237568 0.0477903
-0.215793 -0.00474241 0.0701219
-0.377949 -0.00717585 0.0919497
-0.583207 -0.00939288 0.113202
-0.830292 -0.0112761 0.133758
-1.1177 -0.0127885 0.153511
-1.44375 -0.0139311 0.172386
-1.80662 -0.0147222 0.190327
-2.20441 -0.0151877 0.207296
-2.63514 -0.0153563 0.223266
-3.09679 -0.0152573 0.238217
-3.58732 -0.0149185 0.252138
-4.10465 -0.0143666 0.265018
-4.64669 -0.0136259 0.276851
-5.21135 -0.0127191 0.287631
-5.79652 -0.0116667 0.297355
-6.40007 -0.0104874 0.306021
-7.01989 -0.00919809 0.313625
-7.65386 -0.0078142 0.320166
-8.29985 -0.00634975 0.325643
-8.95572 -0.00481754 0.330056
-9.61936 -0.00322934 0.333402
-10.2886 -0.00159605 0.335681
-10.9614 7.21191e-05 0.336893
-11.6355 0.00176553 0.337038
-12.3088 0.00347493 0.336115
-12.9792 0.00519133 0.334124
-13.6446 0.00690586 0.331064
-14.3028 0.00860961 0.326937
-14.9516 0.0102935 0.321742
-15.589 0.0119482 0.315478
-16.2128 0.0135639 0.308148
-16.8209 0.0151302 0.299749
-17.4111 0.0166361 0.290284
-17.9813 0.0180697 0.279752
-18.5294 0.0194182 0.268154
-19.0532 0.0206679 0.255491
-19.5507 0.0218041 0.241762
-20.0196 0.0228115 0.226969
-20.4578 0.0236742 0.211113
-20.8633 0.0243765 0.194196
-21.2339 0.0249042 0.17622
-21.5675 0.0252459 0.157191
-21.862 0.0253961 0.13712
-22.1153 0.0253587 0.116024
-22.3254 0.0251518 0.0939359
-22.4904 0.0248121 0.0709123
-22.6085 0.0243967 0.047047
-22.6781 0.0239788 0.0224856
-22.6981 0.0236345 -0.00256582
-22.6677 0.0234225 -0.0278451
-22.5868 0.023365 -0.0530557
-22.4557 0.02344 -0.0779011
-22.2756 0.0235893 -0.102119
-22.0478 0.0237371 -0.125503
-21.7742 0.0238106 -0.147909
-21.4569 0.0237529 -0.169242
-21.098 0.0235278 -0.189445
-20.6999 0.0231177 -0.208486
-20.2649 0.0225192 -0.226347
-19.7953 0.0217383 -0.243018
-19.2936 0.0207868 -0.258494
-18.7621 0.0196798 -0.272771
-18.2033 0.0184336 -0.285848
-17.6195 0.017065 -0.297724
-17.0132 0.0155902 -0.308398
-16.3867 0.014025 -0.317869
-15.7425 0.0123843 -0.326138
-15.083 0.0106821 -0.333203
-14.4105 0.008932 -0.339065
-13.7275 0.00714665 -0.343723
-13.0364 0.00533842 -0.347177
-12.3396 0.00351934 -0.349427
-11.6395 0.00170129 -0.350474
-10.9385 -0.000103819 -0.350317
-10.2391 -0.00188385 -0.348957
-9.54352 -0.00362628 -0.346394
-8.85429 -0.00531798 -0.342629
-8.1738 -0.00694508 -0.337663
-7.50444 -0.0084927 -0.331497
-6.84861 -0.00994477 -0.324131
-6.20871 -0.0112839 -0.315569
-5.58713 -0.0124909 -0.305811
-4.98626 -0.0135452 -0.294862
-4.40848 -0.0144238 -0.282725
-3.85615 -0.015102 -0.269405
-3.33164 -0.0155526 -0.25491
-2.83729 -0.0157468 -0.239249
-2.37541 -0.0156536 -0.222438
-1.94829 -0.0152412 -0.204496
-1.55816 -0.0144779 -0.185453
-1.20719 -0.0133349 -0.165349
-0.897438 -0.0117916 -0.144243
-0.630833 -0.00984572 -0.122218
-0.409107 -0.0075354 -0.0993858
-0.233743 -0.00498495 -0.0758771
-0.105997 -0.00249612 -0.0517672
-0.0272286 -0.000635193 -0.0268003
0 0 0
0 0 0
-0.0260368 -0.000343772 0.0256738
-0.101495 -0.00141725 0.0495423
-0.223421 -0.00302204 0.0722233
-0.389819 -0.00484216 0.094044
-0.599084 -0.00662922 0.115094
-0.84967 -0.00823628 0.135358
-1.13996 -0.00959022 0.154788
-1.46823 -0.0106625 0.173338
-1.8327 -0.0114498 0.190968
-2.23147 -0.0119628 0.207648
-2.66264 -0.0122193 0.223353
-3.12422 -0.0122402 0.238065
-3.61423 -0.0120479 0.251771
-4.13063 -0.0116643 0.26446
-4.67139 -0.0111106 0.276124
-5.23444 -0.0104063 0.286756
-5.81772 -0.00956983 0.29635
-6.41914 -0.0086179 0.304902
-7.03663 -0.00756582 0.312409
-7.66808 -0.00642753 0.318866
-8.31139 -0.00521578 0.324273
-8.96447 -0.00394222 0.328626
-9.62519 -0.00261759 0.331923
-10.2915 -0.00125183 0.334165
-10.9611 0.000145749 0.335348
-11.6321 0.00156633 0.335473